# vtk DataFile Version 2.0
Test
ASCII
DATASET STRUCTURED_POINTS
DIMENSIONS 6 101 1
ORIGIN 0 0 0
SPACING 1 1 1
CELL_DATA 500
SCALARS Density double 1
LOOKUP_TABLE default
1
1
1
1
1
1
1
1
1
1
1
1
1
1
1
1
1
1
1
1
1
1
1
1
1
1
1
1
1
1
1
1
1
1
1
1
1
1
1
1
1
1
1
1
1
1
1
1
1
1
1
1
1
1
1
1
1
1
1
1
1
1
1
1
1
1
1
1
1
1
1
1
1
1
1
1
1
1
1
1
1
1
1
1
1
1
1
1
1
1
1
1
1
1
1
1
1
1
1
1
1
1
1
1
1
1
1
1
1
1
1
1
1
1
1
1
1
1
1
1
1
1
1
1
1
1
1
1
1
1
1
1
1
1
1
1
1
1
1
1
1
1
1
1
1
1
1
1
1
1
1
1
1
1
1
1
1
1
1
1
1
1
1
1
1
1
1
1
1
1
1
1
1
1
1
1
1
1
1
1
1
1
1
1
1
1
1
1
1
1
1
1
1
1
1
1
1
1
1
1
1
1
1
1
1
1
1
1
1
1
1
1
1
1
1
1
1
1
1
1
1
1
1
1
1
1
1
1
1
1
1
1
1
1
1
1
1
1
1
1
1
1
1
1
1
1
1
1
1
1
1
1
1
1
1
1
1
1
1
1
1
1
1
1
1
1
1
1
1
1
1
1
1
1
1
1
1
1
1
1
1
1
1
1
1
1
1
1
1
1
1
1
1
1
1
1
1
1
1
1
1
1
1
1
1
1
1
1
1
1
1
1
1
1
1
1
1
1
1
1
1
1
1
1
1
1
1
1
1
1
1
1
1
1
1
1
1
1
1
1
1
1
1
1
1
1
1
1
1
1
1
1
1
1
1
1
1
1
1
1
1
1
1
1
1
1
1
1
1
1
1
1
1
1
1
1
1
1
1
1
1
1
1
1
1
1
1
1
1
1
1
1
1
1
1
1
1
1
1
1
1
1
1
1
1
1
1
1
1
1
1
1
1
1
1
1
1
1
1
1
1
1
1
1
1
1
1
1
1
1
1
1
1
1
1
1
1
1
1
1
1
1
1
1
1
1
1
1
1
1
1
1
1
1
1
1
1
1
1
1
1
1
1
1
1
1
1
1
1
1
1
1
1
1
1
1
1
1
1
1
1
1
1
1
1
1
1
1
1
1
1
1
1
1
1
1
1
1
1
1
VECTORS Velocity double
3.35632e-08 -1.38778e-17 0
4.73031e-08 -1.38778e-17 0
5.41346e-08 -1.38778e-17 0
5.75312e-08 -1.38778e-17 0
7.29598e-08 -1.38778e-17 0
5.36383e-08 5.2149e-09 0
7.51325e-08 -4.84594e-09 0
8.7484e-08 -3.60542e-09 0
9.90091e-08 -5.78135e-09 0
1.26318e-07 2.90743e-09 0
6.64942e-08 1.34579e-08 0
9.19557e-08 -1.2868e-08 0
1.09427e-07 -1.00088e-08 0
1.2687e-07 -1.6072e-08 0
1.62472e-07 7.00293e-09 0
7.60901e-08 2.1586e-08 0
1.04417e-07 -2.03068e-08 0
1.24913e-07 -1.8415e-08 0
1.45246e-07 -2.68583e-08 0
1.8661e-07 1.10164e-08 0
8.3383e-08 2.77697e-08 0
1.1417e-07 -2.60061e-08 0
1.36745e-07 -2.78143e-08 0
1.58302e-07 -3.61165e-08 0
2.03116e-07 1.40598e-08 0
8.8946e-08 3.19285e-08 0
1.22222e-07 -3.03855e-08 0
1.46158e-07 -3.69093e-08 0
1.67865e-07 -4.35725e-08 0
2.14807e-07 1.60964e-08 0
9.30886e-08 3.45074e-08 0
1.28696e-07 -3.42085e-08 0
1.53683e-07 -4.4793e-08 0
1.75148e-07 -4.9636e-08 0
2.23453e-07 1.73122e-08 0
9.6226e-08 3.60152e-08 0
1.33868e-07 -3.78275e-08 0
1.59682e-07 -5.12237e-08 0
1.8074e-07 -5.46814e-08 0
2.30017e-07 1.79425e-08 0
9.86598e-08 3.6782e-08 0
1.37932e-07 -4.12459e-08 0
1.64416e-07 -5.64008e-08 0
1.85104e-07 -5.88965e-08 0
2.35135e-07 1.81463e-08 0
1.00603e-07 3.70374e-08 0
1.4114e-07 -4.43457e-08 0
1.68146e-07 -6.06382e-08 0
1.88542e-07 -6.2391e-08 0
2.3918e-07 1.80426e-08 0
1.02167e-07 3.69469e-08 0
1.43678e-07 -4.70613e-08 0
1.71084e-07 -6.4174e-08 0
1.91279e-07 -6.52764e-08 0
2.42417e-07 1.77285e-08 0
1.03426e-07 3.6644e-08 0
1.45702e-07 -4.94002e-08 0
1.73409e-07 -6.71489e-08 0
1.9347e-07 -6.76759e-08 0
2.45019e-07 1.7288e-08 0
1.04434e-07 3.62269e-08 0
1.47319e-07 -5.14085e-08 0
1.75259e-07 -6.96491e-08 0
1.95232e-07 -6.96967e-08 0
2.47119e-07 1.67854e-08 0
1.05239e-07 3.57626e-08 0
1.48616e-07 -5.31348e-08 0
1.76742e-07 -7.17453e-08 0
1.96655e-07 -7.1416e-08 0
2.48816e-07 1.62635e-08 0
1.05886e-07 3.52911e-08 0
1.49658e-07 -5.46179e-08 0
1.77936e-07 -7.35037e-08 0
1.9781e-07 -7.28845e-08 0
2.50193e-07 1.57484e-08 0
1.06407e-07 3.48352e-08 0
1.50498e-07 -5.58888e-08 0
1.78903e-07 -7.4984e-08 0
1.98753e-07 -7.41386e-08 0
2.51313e-07 1.52557e-08 0
1.06829e-07 3.44071e-08 0
1.5118e-07 -5.69749e-08 0
1.79691e-07 -7.62349e-08 0
1.99526e-07 -7.52082e-08 0
2.52228e-07 1.4795e-08 0
1.07171e-07 3.4013e-08 0
1.51735e-07 -5.79016e-08 0
1.80335e-07 -7.72946e-08 0
2.00163e-07 -7.61203e-08 0
2.52977e-07 1.43723e-08 0
1.0745e-07 3.36555e-08 0
1.52188e-07 -5.8692e-08 0
1.80865e-07 -7.81933e-08 0
2.0069e-07 -7.68984e-08 0
2.53593e-07 1.39901e-08 0
1.07677e-07 3.33349e-08 0
1.52561e-07 -5.93665e-08 0
1.81301e-07 -7.89558e-08 0
2.01126e-07 -7.75628e-08 0
2.54102e-07 1.36485e-08 0
1.07864e-07 3.30501e-08 0
1.52868e-07 -5.99422e-08 0
1.81662e-07 -7.9603e-08 0
2.01489e-07 -7.813e-08 0
2.54522e-07 1.33458e-08 0
1.08017e-07 3.27988e-08 0
1.53123e-07 -6.04336e-08 0
1.81962e-07 -8.01527e-08 0
2.01792e-07 -7.86143e-08 0
2.54871e-07 1.30791e-08 0
1.08144e-07 3.25783e-08 0
1.53333e-07 -6.0853e-08 0
1.82212e-07 -8.06199e-08 0
2.02045e-07 -7.90274e-08 0
2.55162e-07 1.28454e-08 0
1.0825e-07 3.23857e-08 0
1.53509e-07 -6.12109e-08 0
1.8242e-07 -8.10173e-08 0
2.02257e-07 -7.93799e-08 0
2.55405e-07 1.26415e-08 0
1.08337e-07 3.2218e-08 0
1.53656e-07 -6.15162e-08 0
1.82595e-07 -8.13553e-08 0
2.02435e-07 -7.96806e-08 0
2.55608e-07 1.24641e-08 0
1.0841e-07 3.20725e-08 0
1.53778e-07 -6.17768e-08 0
1.82741e-07 -8.1643e-08 0
2.02585e-07 -7.9937e-08 0
2.55778e-07 1.23104e-08 0
1.08472e-07 3.19465e-08 0
1.53881e-07 -6.19991e-08 0
1.82864e-07 -8.18879e-08 0
2.02711e-07 -8.01558e-08 0
2.55922e-07 1.21775e-08 0
1.08523e-07 3.18377e-08 0
1.53968e-07 -6.21887e-08 0
1.82968e-07 -8.20964e-08 0
2.02818e-07 -8.03424e-08 0
2.56042e-07 1.20627e-08 0
1.08566e-07 3.17438e-08 0
1.54041e-07 -6.23505e-08 0
1.83056e-07 -8.22739e-08 0
2.02908e-07 -8.05016e-08 0
2.56144e-07 1.19639e-08 0
1.08602e-07 3.16631e-08 0
1.54102e-07 -6.24886e-08 0
1.83129e-07 -8.24252e-08 0
2.02984e-07 -8.06373e-08 0
2.5623e-07 1.18789e-08 0
1.08633e-07 3.15936e-08 0
1.54154e-07 -6.26063e-08 0
1.83192e-07 -8.2554e-08 0
2.03048e-07 -8.07531e-08 0
2.56303e-07 1.18058e-08 0
1.08659e-07 3.1534e-08 0
1.54198e-07 -6.27068e-08 0
1.83245e-07 -8.26638e-08 0
2.03103e-07 -8.08518e-08 0
2.56364e-07 1.17431e-08 0
1.08681e-07 3.14828e-08 0
1.54235e-07 -6.27924e-08 0
1.8329e-07 -8.27573e-08 0
2.0315e-07 -8.09361e-08 0
2.56416e-07 1.16893e-08 0
1.08699e-07 3.1439e-08 0
1.54267e-07 -6.28655e-08 0
1.83328e-07 -8.2837e-08 0
2.03189e-07 -8.10079e-08 0
2.56461e-07 1.16432e-08 0
1.08715e-07 3.14014e-08 0
1.54294e-07 -6.29279e-08 0
1.8336e-07 -8.29049e-08 0
2.03222e-07 -8.10691e-08 0
2.56498e-07 1.16037e-08 0
1.08728e-07 3.13693e-08 0
1.54316e-07 -6.2981e-08 0
1.83387e-07 -8.29628e-08 0
2.03251e-07 -8.11214e-08 0
2.5653e-07 1.15699e-08 0
1.08739e-07 3.13418e-08 0
1.54335e-07 -6.30264e-08 0
1.83411e-07 -8.30122e-08 0
2.03275e-07 -8.11659e-08 0
2.56557e-07 1.1541e-08 0
1.08749e-07 3.13182e-08 0
1.54352e-07 -6.3065e-08 0
1.8343e-07 -8.30543e-08 0
2.03296e-07 -8.12039e-08 0
2.5658e-07 1.15163e-08 0
1.08757e-07 3.12981e-08 0
1.54366e-07 -6.3098e-08 0
1.83447e-07 -8.30902e-08 0
2.03313e-07 -8.12363e-08 0
2.566e-07 1.14952e-08 0
1.08764e-07 3.12809e-08 0
1.54378e-07 -6.31262e-08 0
1.83462e-07 -8.31208e-08 0
2.03328e-07 -8.1264e-08 0
2.56616e-07 1.14772e-08 0
1.0877e-07 3.12662e-08 0
1.54388e-07 -6.31502e-08 0
1.83474e-07 -8.31468e-08 0
2.03341e-07 -8.12876e-08 0
2.5663e-07 1.14617e-08 0
1.08775e-07 3.12537e-08 0
1.54396e-07 -6.31706e-08 0
1.83484e-07 -8.31691e-08 0
2.03351e-07 -8.13077e-08 0
2.56642e-07 1.14486e-08 0
1.08779e-07 3.1243e-08 0
1.54403e-07 -6.31881e-08 0
1.83493e-07 -8.3188e-08 0
2.03361e-07 -8.13248e-08 0
2.56653e-07 1.14373e-08 0
1.08783e-07 3.12338e-08 0
1.5441e-07 -6.3203e-08 0
1.83501e-07 -8.32042e-08 0
2.03368e-07 -8.13394e-08 0
2.56661e-07 1.14277e-08 0
1.08786e-07 3.1226e-08 0
1.54415e-07 -6.32157e-08 0
1.83507e-07 -8.3218e-08 0
2.03375e-07 -8.13519e-08 0
2.56669e-07 1.14195e-08 0
1.08789e-07 3.12194e-08 0
1.54419e-07 -6.32265e-08 0
1.83512e-07 -8.32297e-08 0
2.03381e-07 -8.13625e-08 0
2.56675e-07 1.14125e-08 0
1.08791e-07 3.12137e-08 0
1.54423e-07 -6.32357e-08 0
1.83517e-07 -8.32397e-08 0
2.03386e-07 -8.13716e-08 0
2.56681e-07 1.14066e-08 0
1.08793e-07 3.12088e-08 0
1.54427e-07 -6.32436e-08 0
1.83521e-07 -8.32483e-08 0
2.0339e-07 -8.13793e-08 0
2.56685e-07 1.14015e-08 0
1.08794e-07 3.12047e-08 0
1.54429e-07 -6.32503e-08 0
1.83524e-07 -8.32556e-08 0
2.03393e-07 -8.13859e-08 0
2.56689e-07 1.13971e-08 0
1.08796e-07 3.12011e-08 0
1.54432e-07 -6.3256e-08 0
1.83527e-07 -8.32618e-08 0
2.03396e-07 -8.13915e-08 0
2.56693e-07 1.13934e-08 0
1.08797e-07 3.11981e-08 0
1.54434e-07 -6.32609e-08 0
1.8353e-07 -8.32671e-08 0
2.03399e-07 -8.13963e-08 0
2.56695e-07 1.13903e-08 0
1.08798e-07 3.11956e-08 0
1.54435e-07 -6.32651e-08 0
1.83532e-07 -8.32716e-08 0
2.03401e-07 -8.14004e-08 0
2.56698e-07 1.13876e-08 0
1.08799e-07 3.11934e-08 0
1.54437e-07 -6.32686e-08 0
1.83534e-07 -8.32755e-08 0
2.03403e-07 -8.14039e-08 0
2.567e-07 1.13853e-08 0
1.088e-07 3.11915e-08 0
1.54438e-07 -6.32717e-08 0
1.83535e-07 -8.32788e-08 0
2.03404e-07 -8.14069e-08 0
2.56702e-07 1.13833e-08 0
1.088e-07 3.11899e-08 0
1.54439e-07 -6.32743e-08 0
1.83536e-07 -8.32816e-08 0
2.03406e-07 -8.14094e-08 0
2.56703e-07 1.13816e-08 0
1.08801e-07 3.11885e-08 0
1.5444e-07 -6.32765e-08 0
1.83538e-07 -8.32839e-08 0
2.03407e-07 -8.14116e-08 0
2.56704e-07 1.13802e-08 0
1.08801e-07 3.11874e-08 0
1.54441e-07 -6.32783e-08 0
1.83538e-07 -8.3286e-08 0
2.03408e-07 -8.14134e-08 0
2.56706e-07 1.1379e-08 0
1.08802e-07 3.11864e-08 0
1.54442e-07 -6.32799e-08 0
1.83539e-07 -8.32877e-08 0
2.03409e-07 -8.1415e-08 0
2.56706e-07 1.13779e-08 0
1.08802e-07 3.11855e-08 0
1.54442e-07 -6.32813e-08 0
1.8354e-07 -8.32892e-08 0
2.0341e-07 -8.14164e-08 0
2.56707e-07 1.1377e-08 0
1.08802e-07 3.11848e-08 0
1.54443e-07 -6.32825e-08 0
1.83541e-07 -8.32905e-08 0
2.0341e-07 -8.14175e-08 0
2.56708e-07 1.13763e-08 0
1.08802e-07 3.11842e-08 0
1.54443e-07 -6.32835e-08 0
1.83541e-07 -8.32916e-08 0
2.03411e-07 -8.14185e-08 0
2.56709e-07 1.13756e-08 0
1.08803e-07 3.11837e-08 0
1.54443e-07 -6.32843e-08 0
1.83541e-07 -8.32925e-08 0
2.03411e-07 -8.14193e-08 0
2.56709e-07 1.13751e-08 0
1.08803e-07 3.11832e-08 0
1.54444e-07 -6.3285e-08 0
1.83542e-07 -8.32933e-08 0
2.03411e-07 -8.142e-08 0
2.56709e-07 1.13746e-08 0
1.08803e-07 3.11828e-08 0
1.54444e-07 -6.32857e-08 0
1.83542e-07 -8.32939e-08 0
2.03412e-07 -8.14206e-08 0
2.5671e-07 1.13742e-08 0
1.08803e-07 3.11825e-08 0
1.54444e-07 -6.32862e-08 0
1.83542e-07 -8.32945e-08 0
2.03412e-07 -8.14211e-08 0
2.5671e-07 1.13739e-08 0
1.08803e-07 3.11822e-08 0
1.54444e-07 -6.32866e-08 0
1.83543e-07 -8.3295e-08 0
2.03412e-07 -8.14216e-08 0
2.5671e-07 1.13736e-08 0
1.08803e-07 3.1182e-08 0
1.54445e-07 -6.3287e-08 0
1.83543e-07 -8.32954e-08 0
2.03412e-07 -8.1422e-08 0
2.56711e-07 1.13733e-08 0
1.08803e-07 3.11818e-08 0
1.54445e-07 -6.32873e-08 0
1.83543e-07 -8.32957e-08 0
2.03413e-07 -8.14223e-08 0
2.56711e-07 1.13731e-08 0
1.08803e-07 3.11816e-08 0
1.54445e-07 -6.32876e-08 0
1.83543e-07 -8.32961e-08 0
2.03413e-07 -8.14226e-08 0
2.56711e-07 1.1373e-08 0
1.08803e-07 3.11815e-08 0
1.54445e-07 -6.32879e-08 0
1.83543e-07 -8.32963e-08 0
2.03413e-07 -8.14228e-08 0
2.56711e-07 1.13728e-08 0
1.08803e-07 3.11814e-08 0
1.54445e-07 -6.32881e-08 0
1.83543e-07 -8.32965e-08 0
2.03413e-07 -8.1423e-08 0
2.56711e-07 1.13727e-08 0
1.08804e-07 3.11812e-08 0
1.54445e-07 -6.32882e-08 0
1.83543e-07 -8.32967e-08 0
2.03413e-07 -8.14232e-08 0
2.56711e-07 1.13726e-08 0
1.08804e-07 3.11812e-08 0
1.54445e-07 -6.32884e-08 0
1.83543e-07 -8.32969e-08 0
2.03413e-07 -8.14233e-08 0
2.56711e-07 1.13725e-08 0
1.08804e-07 3.11811e-08 0
1.54445e-07 -6.32885e-08 0
1.83544e-07 -8.3297e-08 0
2.03413e-07 -8.14234e-08 0
2.56711e-07 1.13724e-08 0
1.08804e-07 3.1181e-08 0
1.54445e-07 -6.32886e-08 0
1.83544e-07 -8.32971e-08 0
2.03413e-07 -8.14235e-08 0
2.56712e-07 1.13723e-08 0
1.08804e-07 3.1181e-08 0
1.54445e-07 -6.32887e-08 0
1.83544e-07 -8.32972e-08 0
2.03413e-07 -8.14236e-08 0
2.56712e-07 1.13722e-08 0
1.08804e-07 3.11809e-08 0
1.54445e-07 -6.32888e-08 0
1.83544e-07 -8.32973e-08 0
2.03413e-07 -8.14237e-08 0
2.56712e-07 1.13722e-08 0
1.08804e-07 3.11809e-08 0
1.54445e-07 -6.32888e-08 0
1.83544e-07 -8.32974e-08 0
2.03413e-07 -8.14238e-08 0
2.56712e-07 1.13722e-08 0
1.08804e-07 3.11808e-08 0
1.54445e-07 -6.32889e-08 0
1.83544e-07 -8.32974e-08 0
2.03413e-07 -8.14238e-08 0
2.56712e-07 1.13721e-08 0
1.08804e-07 3.11808e-08 0
1.54445e-07 -6.32889e-08 0
1.83544e-07 -8.32975e-08 0
2.03414e-07 -8.14239e-08 0
2.56712e-07 1.13721e-08 0
1.08804e-07 3.11808e-08 0
1.54445e-07 -6.3289e-08 0
1.83544e-07 -8.32975e-08 0
2.03414e-07 -8.14239e-08 0
2.56712e-07 1.13721e-08 0
1.08804e-07 3.11808e-08 0
1.54445e-07 -6.3289e-08 0
1.83544e-07 -8.32976e-08 0
2.03414e-07 -8.14239e-08 0
2.56712e-07 1.1372e-08 0
1.08804e-07 3.11807e-08 0
1.54445e-07 -6.32891e-08 0
1.83544e-07 -8.32976e-08 0
2.03414e-07 -8.1424e-08 0
2.56712e-07 1.1372e-08 0
1.08804e-07 3.11807e-08 0
1.54445e-07 -6.32891e-08 0
1.83544e-07 -8.32976e-08 0
2.03414e-07 -8.1424e-08 0
2.56712e-07 1.1372e-08 0
1.08804e-07 3.11807e-08 0
1.54445e-07 -6.32891e-08 0
1.83544e-07 -8.32977e-08 0
2.03414e-07 -8.1424e-08 0
2.56712e-07 1.1372e-08 0
1.08804e-07 3.11807e-08 0
1.54445e-07 -6.32891e-08 0
1.83544e-07 -8.32977e-08 0
2.03414e-07 -8.1424e-08 0
2.56712e-07 1.1372e-08 0
1.08804e-07 3.11807e-08 0
1.54445e-07 -6.32891e-08 0
1.83544e-07 -8.32977e-08 0
2.03414e-07 -8.1424e-08 0
2.56712e-07 1.1372e-08 0
1.08804e-07 3.11807e-08 0
1.54445e-07 -6.32891e-08 0
1.83544e-07 -8.32977e-08 0
2.03414e-07 -8.14241e-08 0
2.56712e-07 1.1372e-08 0
1.08804e-07 3.11807e-08 0
1.54445e-07 -6.32892e-08 0
1.83544e-07 -8.32977e-08 0
2.03414e-07 -8.14241e-08 0
2.56712e-07 1.13719e-08 0
1.08804e-07 3.11807e-08 0
1.54445e-07 -6.32892e-08 0
1.83544e-07 -8.32977e-08 0
2.03414e-07 -8.14241e-08 0
2.56712e-07 1.13719e-08 0
1.08804e-07 3.11807e-08 0
1.54445e-07 -6.32892e-08 0
1.83544e-07 -8.32977e-08 0
2.03414e-07 -8.14241e-08 0
2.56712e-07 1.13719e-08 0
1.08804e-07 3.11807e-08 0
1.54445e-07 -6.32892e-08 0
1.83544e-07 -8.32978e-08 0
2.03414e-07 -8.14241e-08 0
2.56712e-07 1.13719e-08 0
1.08804e-07 3.11806e-08 0
1.54445e-07 -6.32892e-08 0
1.83544e-07 -8.32978e-08 0
2.03414e-07 -8.14241e-08 0
2.56712e-07 1.13719e-08 0
1.08804e-07 3.11806e-08 0
1.54445e-07 -6.32892e-08 0
1.83544e-07 -8.32978e-08 0
2.03414e-07 -8.14241e-08 0
2.56712e-07 1.13719e-08 0
1.08804e-07 3.11806e-08 0
1.54445e-07 -6.32892e-08 0
1.83544e-07 -8.32978e-08 0
2.03414e-07 -8.14241e-08 0
2.56712e-07 1.13719e-08 0
1.08804e-07 3.11806e-08 0
1.54445e-07 -6.32892e-08 0
1.83544e-07 -8.32978e-08 0
2.03414e-07 -8.14241e-08 0
2.56712e-07 1.13719e-08 0
1.08804e-07 3.11806e-08 0
1.54445e-07 -6.32892e-08 0
1.83544e-07 -8.32978e-08 0
2.03414e-07 -8.14241e-08 0
2.56712e-07 1.13719e-08 0
1.08804e-07 3.11806e-08 0
1.54445e-07 -6.32892e-08 0
1.83544e-07 -8.32978e-08 0
2.03414e-07 -8.14241e-08 0
2.56712e-07 1.13719e-08 0
1.08804e-07 3.11806e-08 0
1.54445e-07 -6.32892e-08 0
1.83544e-07 -8.32978e-08 0
2.03414e-07 -8.14241e-08 0
2.56712e-07 1.13719e-08 0
9.2367e-08 3.11806e-08 0
1.27202e-07 -6.32892e-08 0
1.50927e-07 -8.32978e-08 0
1.68126e-07 -8.14241e-08 0
2.09289e-07 1.13719e-08 0
